<?xml version="1.0"?>
<VTKFile type="UnstructuredGrid"  version="0.1"  >
<UnstructuredGrid>
<Piece  NumberOfPoints="35036" NumberOfCells="69467">
<Points>
<DataArray  type="Float64"  NumberOfComponents="3"  format="ascii">-1 1 0  -1 -1 0  1 -1 0  1 1 0  0 -1 0  1 0 0  0 1 0  -1 0 0  0 0 0  -1 -0.5 0  -0.5 -1 0  -0.5 1 0  -1 0.5 0  1 -0.5 0  0.5 -1 0  1 0.5 0  0.5 1 0  0.4166666666666666 -0.4166666666666667 0  -0.4166666666666667 0.4166666666666667 0  -0.25 -0.5 0  0.5 0.25 0  -0.4861111111111112 -0.06944444444444445 0  0.0732758620689655 0.507183908045977 0  -0.625 -0.625 0  0.625 0.625 0  0.7380952380952381 -0.25 0  -0.7099116161616161 0.2105429292929293 0  -0.25 0.7380952380952381 0  0.105392156862745 -0.6348039215686275 0  0.6770833333333334 -0.6770833333333333 0  -0.6770833333333334 0.6770833333333334 0  0.3472222222222222 -0.06944444444444446 0  -0.7264957264957265 -0.3044871794871795 0  0.3141940982507127 0.7297313660835709 0  0.02049587951122483 -0.3227479397556124 0  -0.2690972222222223 0.1475694444444444 0  0.3859500089908372 -0.7274430156831472 0  -0.2228477945123298 -0.1761765495248019 0  0.2182539682539683 0.1884920634920635 0  0.75 0.375 0  -0.145442219440968 -0.7602211097204841 0  0.7088913690476191 0.0427827380952381 0  -0.75 -1 0  -1 -0.75 0  1 0.75 0  0.75 1 0  -0.7439982703698937 -0.04614153195464455 0  -0.4609235096577606 -0.3356498099556895 0  0.4063134471431929 0.4895621842856023 0  0.25 -1 0  -0.25 -1 0  -0.75 1 0  0.75 -1 0  -1 -0.25 0  -1 0.25 0  1 -0.25 0  -0.25 1 0  1 -0.75 0  -1 0.75 0  0.25 1 0  1 0.25 0  -0.4041423272138783 -0.7597141090712928 0  0.06500839607911253 0.7578103030529481 0  -0.1572801182352047 0.3838997021864289 0  -0.6528005242053915 0.4409494757946086 0  -0.4930160984848485 0.1544744318181818 0  -0.4732142857142858 0.7752976190476191 0  0.6398809523809523 -0.4538690476190476 0  0.5166054117396399 -0.2161233620965164 0  -0.002273787244753427 0.2232363985975174 0  0.1500564496765022 -0.1524955293952667 0  0.2016720420046758 -0.4410343282803009 0  -0.08495178036419618 0.6274139771124571 0  -0.8367311471133162 0.3642591720794645 0  -0.8333333333333334 -0.625 0  -0.594323836800685 -0.8231079456002283 0  -0.4466957714776065 -0.5349126855671806 0  0.8125 0.5625 0  0.78125 0.78125 0  0.5091392650016769 0.7947130883338923 0  0.125 -0.8382681931833136 0  -0.8184523809523809 -0.8184523809523809 0  -0.07781530426104531 -0.5819319697006881 0  0.5085055196703295 0.04967610411902112 0  0.2918471072074933 -0.276017202318847 0  0.5120763537765269 -0.5898771553229597 0  0.625 -0.8585349462365591 0  0.8158532234335381 -0.8158532234335381 0  -0.5198088446315396 0.5739411553684605 0  -0.8585349462365591 0.625 0  -0.8150493805516597 0.8156205699829586 0  0.8585349462365591 -0.625 0  -0.2688268348649726 0.5439331383603209 0  0.8242100426758139 -0.4436043596336612 0  0.5833756314287952 0.4479378157143976 0  0.8690476190476191 -0.125 0  -0.125 0.8690476190476191 0  -0.8692745600729823 0.125 0  0.8696725120759167 0.125 0  -0.625 0.8711516477451908 0  0.2339522463269718 0.3879558377955778 0  0.2453709502295031 0.5655822922838026 0  0.1730610651637797 0.02021709580868947 0  0.3245402594056757 -0.5644672020485209 0  -0.7291666666666666 -0.4816595441595442 0  -1 -0.375 0  -0.5811140848639904 -0.2127276307675001 0  0.673332592838314 0.2158348143233718 0  0.375 1 0  -0.5714768890989919 0.2985103444040069 0  -1 -0.125 0  -0.8453692574786325 -0.1875 0  -0.3144549134065865 -0.02408675326008025 0  -0.2898414972096258 -0.3336092734780093 0  -0.1075052092206287 -0.4224330421314983 0  -0.05043970703604117 -0.1652278959397459 0  0.6459672950297897 -0.1113415301525317 0  0.4645210271029513 0.6398480556579343 0  0.3512863754411909 0.0937979496253573 0  -0.6063160985568274 0.03891469652249891 0  -0.3428819444444445 0.8690476190476191 0  0.625 1 0  -0.1602164796159982 0.02697860906625157 0  0.04648110064133829 -0.4808416424239687 0  1 0.875 0  -0.3836102479201657 0.6484936449177356 0  -0.3776011723096096 0.263078478984336 0  -0.6024978259969829 -0.3949628096211138 0  0.125 1 0  0.2010781308272777 0.8456221018461906 0  0.2822509696388829 -0.845902544691141 0  -0.3285533674953515 -0.6289773550938936 0  0.3461306793221754 0.278777492464833 0  0.4737475672408696 -0.8508448959534423 0  0.2384632828836344 -0.7029523187242811 0  -0.004777287059791593 0.3759269695907358 0  -0.8499735021850066 -0.3912320205328522 0  0.1222536293721587 0.2963971539625205 0  -0.3769456520999688 -0.203572526805711 0  -0.2749617205755651 -0.8464290792698902 0  0.004805888512766143 -0.747174355248311 0  -0.125 -1 0  -0.06001061822252458 -0.8724007765244854 0  0.875 0.4375 0  0.854421179608893 0.271342359217786 0  0.875 1 0  -0.1499861095763589 0.2358309656934888 0  0.3381943639137225 0.8663061796405532 0  -0.7853090110442228 0.4998412775277108 0  0.7398165998560814 -0.5535192694951373 0  0.1580042122341573 -0.3100246140259917 0  -0.7291666666666667 -0.7142857142857142 0  -0.375 -1 0  0.6483368386154684 0.8514905990110488 0  -0.1295370103291928 -0.2826118305021242 0  0.07458201853700455 0.1123894386563915 0  0.6146465857036327 -0.3161203659316075 0  0.5551898493894731 -0.740296118159085 0  0.375 -1 0  0.482702798370208 -0.084133350091034 0  0.87890625 0.68359375 0  -0.05917195534525846 0.4971092425697621 0  0.1260710309213975 0.6343750312956699 0  0.8690476190476191 -0.3077066815262848 0  -0.2912010232560567 0.3668168386732139 0  -0.875 1 0  -1 0.875 0  1 -0.875 0  0.875 -1 0  -0.8689564281364567 -0.006189266075306407 0  -0.7449425635110547 0.08458938160051771 0  -0.7150266761936593 -0.1739444581417552 0  -0.5260034831318311 -0.711099823962112 0  -0.4724626808827322 -0.871722230709409 0  0.4734436795977052 0.377714794132168 0  -0.875 -1 0  -1 -0.875 0  0.6927189078571988 0.5156567235715964 0  -0.3742497615796874 -0.4296005251260107 0  -0.1969436423297711 -0.6387157229772615 0  -0.6179496409766825 -0.08933356056510935 0  -0.424405057115988 0.04452428810878029 0  -0.08479048335844169 0.1279607007132633 0  0.003830300099055113 0.8712085230656206 0  0.8748778838820267 -1.379218479898026e-05 0  -0.375 1 0  -0.625 1 0  1 0.125 0  -0.125 1 0  1 -0.375 0  1 -0.125 0  1 -0.625 0  0.625 -1 0  0.125 -1 0  -0.625 -1 0  -1 -0.625 0  -1 0.125 0  -1 0.375 0  -1 0.625 0  1 0.375 0  1 0.625 0  0.6325660748712082 0.3335187599557389 0  -0.06420945895056573 0.7549874027425891 0  -0.8769015540914771 0.2478802253893416 0  0.871875 0.871875 0  -0.6868091492840067 0.3270978624973681 0  -0.5363597469565949 0.412994850055505 0  -0.6803734992638302 0.5574295000651103 0  -0.7076253581162534 -0.8803439094224437 0  -0.8778089002295137 -0.5106896447504627 0  -0.3860184984222981 0.530566778071246 0  0.6109900617121508 0.1128453077697081 0  0.3896945134930274 -0.1915382873255086 0  0.7605656944697778 -0.06822134873122943 0  0.3576151269893478 0.5948388411612135 0  -0.5689902680792265 -0.5143596830118065 0  0.6262446286847614 -0.5735657901943212 0  0.2030558252325225 -0.5625263842513452 0  0.6123273142928579 0.7407533260723429 0  0.4016460890123554 -0.3042863223111857 0  -0.59039693199147 0.7578418819188018 0  0.7276932493917544 -0.3705808024528924 0  0.5222536818742854 -0.4713886230400014 0  -0.5101986527137737 0.8848365765607674 0  0.510560172809238 0.5356013299918891 0  -0.3603569195756083 0.75823710606415 0  0.1967279277813232 0.728226870058472 0  -0.6086880986371127 0.1545624071548516 0  -0.38105366729386 0.1511189987807864 0  -0.2944659463671584 -0.7359061804869591 0  0.5060729154966499 -0.3475227845833823 0  -0.09281616240412746 -0.06197858250969457 0  0.7649739583333334 0.6673177083333334 0  0.7628906249999999 0.890234375 0  -0.2666864184909611 0.2585504071132311 0  0.3635064892129658 0.3878003602709461 0  -0.2339409722222222 0.8901937905844155 0  -0.1718792125974916 -0.8957733325456778 0  0.1001768566329531 0.4023510017391879 0  0.3120260172693757 -0.4540546875576884 0  0.7804062804433681 0.1896628610854537 0  0.4087715451998049 0.187961780041608 0  -0.1584963477271457 0.5451611892421655 0  -0.8926817849258324 0.463022006336401 0  0.2338091473445219 -0.07576267331277289 0  0.08171112182813692 -0.2349087687359925 0  0.04635385178956847 -0.1044635073718474 0  -0.4377391632114205 -0.6448874471423088 0  -0.1907678351227189 0.6480215912813945 0  0.300605946475244 0.4741444604171038 0  -0.2145033720757486 -0.06751709909419711 0  0.6069191921170397 -0.005492331448357812 0  0.0214718770761248 0.6032397936031719 0  0.5476675683364878 0.8992752415326501 0  0.4387475014316537 0.9093708953002239 0  -0.4932997685306436 -0.4381009159993523 0  0.2515197695339056 -0.1791673369138964 0  -0.7291666666666667 -0.6088789682539681 0  -0.9166666666666667 -0.6875 0  0.620579540363709 -0.2122431523583302 0  -0.484950136419973 0.6719440339397442 0  0.2857044415400258 0.0137589173127316 0  -0.8945708364098356 -0.288306105327986 0  0.4043102720140535 0.7842914560451557 0  0.04123256238752064 -0.9026968245801402 0  0.2003676884403109 -0.9091888601740487 0  0.1068775558538842 -0.7373377130403223 0  -0.4804566783514427 -0.1763307203045643 0  0.108286342087769 -0.3993789328997278 0  -0.191883080105361 -0.3640821726430649 0  -0.07025064492006244 0.2984876656890053 0  -0.7039324641409584 0.788312126296613 0  -0.7311286585775438 0.8932502354831682 0  0.5171409396884947 0.1503852691889257 0  0.4229392823658633 -0.003216522184234835 0  -0.5621736087218259 -0.919558629836806 0  -0.626474064879544 -0.7266572613636506 0  0.2446828746617422 0.2867616783302419 0  0.1759429608742923 0.4776611759306416 0  -0.3468240303741654 -0.5260416435617549 0  -0.7465808808425306 0.4069574477998361 0  -0.7819962170660292 0.2802441065650652 0  -0.3742623214119594 -0.8547800509641984 0  0.1014498009713561 0.8506721983266377 0  0.4285217620918213 -0.5230190595570253 0  0.4091738370487775 -0.6256346204225141 0  0.78125 0.46875 0  0.90625 0.53125 0  -0.4791801348852565 0.2553992655702126 0  0.7843318610782772 -0.7086046956885941 0  0.8909728264971901 -0.7355183796514634 0  0.7041908166528879 -0.7830649143180282 0  0.73118213
[...]
<PointData  Scalars="f_424"> 
<DataArray  type="Float64"  Name="f_424"  format="ascii">1.0000000000000000e+00  1.0000000000000000e+00  1.0000000000000000e+00  1.0000000000000000e+00  1.0000000000000000e+00  1.0000000000000000e+00  1.0000000000000000e+00  1.0000000000000000e+00  1.0272399547786957e+01  1.0000000000000000e+00  1.0000000000000000e+00  1.0000000000000000e+00  1.0000000000000000e+00  1.0000000000000000e+00  1.0000000000000000e+00  1.0000000000000000e+00  1.0000000000000000e+00  4.7988463222263422e-01  4.7989300778596744e-01  3.2660237995827850e+00  3.2660107819316178e+00  2.9997822150785201e+00  3.5157390322882107e+00  -5.0158528754473481e+00  -5.0158583711759661e+00  1.0719934451117636e+00  1.1497765234328683e+00  1.0719570522799506e+00  1.9844679347308167e+00  -3.8337980660096647e+00  -3.8337951682555866e+00  -2.3472934584886969e+00  2.0103920737429513e+00  1.9485945574997041e+00  -2.4242857607961197e+00  -4.7077994759419513e+00  1.1431778330347688e+00  -4.8326782549963125e+00  -5.0685714562090647e+00  1.1886984598747208e+00  -2.9866919747058631e+00  -3.2005869351374510e+00  1.0000000000000000e+00  1.0000000000000000e+00  1.0000000000000000e+00  1.0000000000000000e+00  -5.0586274840116454e+00  1.3232730234270944e+00  1.0964630523126238e+00  1.0000000000000000e+00  1.0000000000000000e+00  1.0000000000000000e+00  1.0000000000000000e+00  1.0000000000000000e+00  1.0000000000000000e+00  1.0000000000000000e+00  1.0000000000000000e+00  1.0000000000000000e+00  1.0000000000000000e+00  1.0000000000000000e+00  1.0000000000000000e+00  6.6760876983669293e-01  -5.3350219385138731e+00  -1.8984525180462539e+00  -3.4395791845744605e-01  3.2384674112677514e+00  -6.3638419776508004e-01  -8.2702749569649403e-01  3.9291378053913664e+00  -5.7038074940594286e-01  -1.2006759038660568e+00  8.2498310942857922e-01  1.9696083301310539e+00  8.9336076593441061e-01  -5.4364063623604894e-02  -5.8940970692066974e-01  5.9624213473962830e-02  -9.2380211097141662e-01  1.9672131547460747e+00  -9.1062258981993660e-01  -5.2107654071551366e+00  3.3917385245362581e+00  3.4374024774723124e+00  3.4964302701942676e+00  -5.3837601745858956e+00  -2.7462375000997210e+00  5.5340379091437120e-01  3.3214799517603533e+00  -2.7931305484855664e+00  5.5338716184509651e-01  3.3068695557339485e+00  5.5338350745419984e-01  4.2568674100758557e+00  4.1604068884498707e-01  -3.1536344197477761e-01  -4.8505334375104683e+00  -4.8505525315331166e+00  -4.8458627598545672e+00  -4.8376497817990129e+00  8.0417504116682526e-01  -2.0378553062481810e+00  4.6743064841568591e+00  2.1752541731397952e+00  3.6621828600177064e+00  -1.4397347223476848e+00  1.0000000000000000e+00  4.7099295932668070e+00  2.6611910857534808e+00  1.0000000000000000e+00  4.1927672030399723e+00  1.0000000000000000e+00  -2.9868399311174199e+00  -2.5216186485929519e+00  -3.9750690087315195e+00  3.4699061240598605e-01  2.1373834863945969e+00  1.5861309672360986e+00  -1.2527255159017612e+00  -2.5164028752456145e+00  2.3477323665390233e+00  7.6338179568585374e-01  1.0000000000000000e+00  2.9248464718681584e+00  2.8448393828854082e+00  1.0000000000000000e+00  1.7965313873814939e+00  -2.4559849449373914e+00  1.6377847092250293e+00  1.0000000000000000e+00  -2.5080748078644084e+00  -1.2744778692754580e-01  3.4726895128976212e+00  -3.6790831037684391e+00  4.4239931582828756e-01  2.0095598804547854e+00  -1.0918602931418611e+00  9.1708953304380492e-01  -4.0923562084813581e+00  -2.5438007486755931e+00  -2.9453732339509447e-01  -5.5748372330895872e+00  1.0000000000000000e+00  -6.3225160186055316e+00  9.1075806894142119e-01  -4.0080247798737251e-01  1.0000000000000000e+00  -4.3431790165848652e+00  7.1795880568994486e-01  -9.5772132148412892e-01  -2.7798783614910776e+00  -4.5802516118285368e+00  -1.4736472464450152e+00  1.0000000000000000e+00  6.9987505675233863e-01  -4.3061660211325705e+00  4.6283340245047810e+00  3.8394730709173484e+00  -2.7891990585739133e+00  9.9999999999999989e-01  2.8980495932851449e+00  1.7283255448603945e+00  3.2799852473391056e+00  2.3917595779422403e+00  3.2334186994842079e-01  -2.6735012453133304e+00  1.0000000000000000e+00  1.0000000000000000e+00  9.9999999999999989e-01  1.0000000000000000e+00  -6.9430316885036696e+00  -4.2905015339448225e+00  -1.0341209826611963e-01  -2.8529574588510886e+00  7.0775321182756090e-01  1.3047911242923789e+00  1.0000000000000000e+00  1.0000000000000000e+00  -2.8343990167140247e+00  4.2494593185426582e-01  3.5253743665428732e+00  2.4331775026004219e+00  7.3365146071552712e-01  3.2773714781942593e+00  -6.8760458812671503e+00  -6.7559990731037916e+00  1.0000000000000000e+00  1.0000000000000000e+00  1.0000000000000000e+00  1.0000000000000000e+00  1.0000000000000000e+00  1.0000000000000000e+00  1.0000000000000000e+00  1.0000000000000000e+00  9.9999999999999989e-01  1.0000000000000000e+00  1.0000000000000000e+00  1.0000000000000000e+00  9.9999999999999989e-01  1.0000000000000000e+00  1.0000000000000000e+00  1.0000000000000000e+00  3.3311633278283086e+00  -5.2312869511685935e+00  -9.4848274429855528e-01  3.7763235914476114e+00  2.6825616805594485e+00  1.0948523646115562e+00  -3.9730755294331250e+00  2.1420627400106635e+00  6.0715060357571426e-01  1.8432327224225391e+00  3.0431819069457720e+00  -1.8450840851480905e+00  -5.3782226783878846e+00  2.8977232359786886e+00  -2.5523112299648489e+00  -4.6004111817710962e+00  4.6796612603907386e+00  -2.9973305249075830e+00  -1.0277691494946868e+00  -2.5369591743095765e+00  1.4424483076385253e+00  -5.4588639846553866e-01  7.0356197302443457e-01  -1.8586295850230443e+00  1.2943616373998996e+00  3.5290724506102794e-02  3.7504364155510053e+00  -1.9798428819694087e+00  1.7522556908177220e+00  2.3603814896290127e+00  6.2228917523123739e+00  -1.4923541284753350e+00  3.0479081499660232e+00  -5.9812694291618449e+00  -7.4039452044112375e-01  -1.1979287435435995e+00  -2.8349126720281421e+00  -5.4005437904511844e-01  1.1754296869728043e+00  -2.0149735690239288e+00  -8.2780177143294231e-01  4.3803394521426275e+00  9.5264163066131902e-01  -2.0670685116175522e+00  -2.2596472251268023e+00  6.0810447297004382e+00  -1.9547776404877951e-01  3.1193769381041259e+00  1.9878589345299373e+00  -1.0613019751353638e+00  2.1928334640596558e+00  2.3756728488276599e+00  8.4362305398660464e-01  1.1179150326934000e+00  5.0703032471012777e-01  -5.3439063135023233e+00  -3.3460612811286019e+00  1.9949876792446122e+00  4.1871045219338452e+00  -2.0047707237971752e+00  -2.4303111987378982e+00  6.3425561154202031e-02  6.7562543726678659e-01  -5.3535142801316997e+00  -1.7412835972283276e+00  -3.2983918293470009e+00  2.7467546891496673e+00  -7.4054369059139880e-01  -3.0991746592360792e+00  -3.0907442007640231e+00  1.1619479967275809e-01  2.5846315244853870e+00  3.9182581095650284e+00  7.4436769180537088e-01  1.0696256680533489e+00  -3.3183936500069779e+00  -5.7714620403143622e+00  2.6324701162548267e+00  2.7267976731158137e+00  6.2029499102881402e-01  5.6787665838106771e-01  9.2289570272669219e-01  -5.8451816029565391e+00  6.5355942044247850e-01  1.0066088138860350e+00  -4.6782633794658018e-01  9.1932003329389422e-01  2.4449938890401577e+00  1.1464504620455475e-01  2.6483811369462247e+00  -3.8843518836103923e-02  2.5811341769943117e+00  3.2472311655235355e+00  2.3246764892478446e+00  1.0484084130201388e-01  1.1649922029815931e+00  1.5658120280488597e+00  3.2199067912107964e+00  3.4652918759455411e+00  3.1702163106075889e+00  3.3780863573868940e+00  3.4372757737824462e+00  3.7658511836758835e+00  -4.6515978725693090e+00  8.9928446357445446e-01  -1.1971301235786569e+00  3.1695695173332283e+00  4.4457813912790831e+00  -2.2147013739347687e+00  -4.8418779466522821e+00  -2.1010492575731865e+00  -1.2516283278654290e+00  1.1288795724395140e+00  1.0681948269609898e+00  1.1351198899292956e+00  8.0434426159246031e-01  1.1100804444886738e+00  3.2579799597535835e+00  -3.5002641799895327e+00  -1.7149509466315238e-01  -2.9325388918486306e+00  -3.5952123887428362e+00  1.3622723041229083e+00  -2.8164356047123102e+00  3.2413860618128871e+00  -2.5663231870591905e+00  -3.0292919328004473e+00  -1.4997564278646645e+00  -1.1203903114783842e+00  3.9742677999735347e+00  -8.3689655623191006e-01  6.5059271415548658e-01  -3.0007456880302286e+00  -6.2098482382159679e+00  -1.3884994995879145e+00  1.1942991131109939e+00  3.5475926217459985e+00  5.1646997492056546e-01  -3.6328223923740310e+00  -4.6943957753844252e+00  -3.3588782849581480e+00  -3.1536303840370112e+00  -3.3519427142793066e+00  -6.7890687431063927e+00  -1.3048477108258276e+00  -4.3954394521877846e+00  6.5880121149498871e-01  -2.9914998260650858e+00  1.1962125748469226e+00  6.7236544150985411e-01  2.9364206091781884e+00  3.8459399498939302e+00  4.0994339656521550e+00  1.1995493648549702e+00  8.7696720984977095e-01  -1.3655653008145192e+00  -3.8717149352948872e+00  2.9363935437034230e+00  6.8848288990740758e-01  -3.1896861487005963e+00  -3.3131978638270390e+00  -3.3286547648009575e+00  -3.1821215567292023e+00  2.7501101872928575e+00  2.3084561009959148e+00  -1.1227296607648620e+00  4.7035940726149947e+00  4.1003852118386304e+00  -1.9592753134713778e+00  1.9203050754386359e+00  1.5146957577405298e+00  -1.7168951692071213e+00  -2.4769236738250662e+00  7.6613448291491970e+00  -1.4054540424166455e+00  -1.5580596454040485e-01  -1.6275163208590089e+00  -1.7654550678763257e+00  -3.2081445191221507e-03  1.6386898121649920e+00  -1.2707868056391640e+00  -1.3038822627917357e+00  3.4307066854767467e+00  -2.5318873906332101e-01  -1.4809478764448893e+00  -5.9640486052229802e+00  1.7266036845123702e+00  1.2200453181838902e+00  -1.1727667454188515e+00  -6.2945303007439490e-01  -9.3440276247417253e-01  -1.1871843096018743e-01  -5.5992299456663703e+00  -3.2443408194233458e+00  8.7463525977888823e-01  1.1497419469258308e+00  -1.0958425350965046e+00  4.3193672582286124e+00  8.3966614948477580e-01  -4.7363046437594347e+00  -1.7802370932126865e+00  -8.0656104640827953e-01  -3.9339989841884865e-01  3.4300161944439180e+00  7.5497112195830007e-01  3.4185582075844092e+00  3.1860477553064563e+00  1.7154704589349509e-01  -2.4613581524733577e+00  4.3197647798469090e+00  4.6308268451685572e+00  3.9596755293099570e+00  2.4077659184850884e+00  -1.4240011037021820e+00  4.1875743931430218e+00  1.0000000000000000e+00  7.7559634504636135e+00  7.9583704547993479e+00  1.1652700944096674e+00  1.0801448720272697e-01  -5.1224838102795232e-02  -7.4829808767409312e-01  4.0008048683092134e+00  -2.5894887661039947e+00  2.1654341501536707e+00  -3.9785473569780866e-01  -3.8720571602753577e+00  2.6672526725570261e-01  1.0000000000000000e+00  -5.9511194189855061e+00  5.4459902203785571e-01  4.6739756264957988e-01  -1.5455514389214922e-01  -7.6013539089943833e+00  -3.2834718414352126e+00  3.7688339813763601e+00  -1.9727646295773343e-01  -1.5293662408428796e+00  1.1753383801227362e+00  -6.9430537125735325e-01  2.9199451335692794e+00  1.1986931651686943e+00  1.1040257444452062e+00  -3.4860190309374368e+00  -2.6612789648772911e-01  -4.7758481156701880e+00  2.9191341276188241e+00  4.7891939474645047e-02  -3.4973682353337971e+00  -8.0050472199173572e-01  -4.1342090092852346e-01  1.7368106482063801e+00  -3.9715007826600401e+00  -3.7854875173988902e+00  -1.6973715280267121e+00  7.5808172410620545e-01  9.9999999999999989e-01  9.5262718179000183e-01  1.0000000000000000e+00  3.5578248995924455e+00  9.1731198297532757e-01  1.0141852356191892e+00  3.6511211030641326e+00  -7.1515732400540557e+00  3.2039290456472480e-01  3.3487666438721679e+00  1.4566515895553258e+00  -2.6582597315814724e+00  1.0000000000000000e+00  1.7215528785477483e+00  4.2935124211783746e+00  1.0000000000000000e+00  1.8485000247274605e-01  -2.3577543756525737e-02  1.0542026252118708e-01  4.3777671380873775e+00  1.6988894273407742e+00  -5.3128367842939292e+00  1.1641325677520071e+00  9.9999999999999989e-01  -4.8165911793916855e-01  1.5615171378508754e+00  -7.7568534831552460e-01  3.6262407161811443e+00  1.0000000000000000e+00  1.8393395492227540e+00  9.6815047576906699e-01  5.9039700298092368e-01  -4.3347797340265908e+00  -4.7925530416343705e+00  -1.7312790089548491e+00  1.0000000000000000e+00  -2.5509727555333024e+00  3.6834751988043837e+00  -8.0082805387448874e-01  1.5972430009232005e-01  -3.8435322506836860e+00  -2.6078991290399669e+00  -4.0407882312547621e+00  7.0557584755136880e+00  1.0000000000000000e+00  1.2371226614711490e+00  -1.8922512361182140e+00  -6.9489744985255131e-01  -1.3213580505867972e+00  4.4538407261373447e-01  9.5003689903666455e-01  1.3118806290565981e+00  8.0581447030126196e-01  1.6892458667181862e+00  -3.0343638191610829e+00  -5.2054529054597163e+00  2.4642894109976465e+00  3.1697771767247036e+00  3.3691743620268713e+00  1.0000000000000000e+00  1.6551544876689557e+00  1.2058712248886831e+00  -3.0711549138844041e+00  -6.3478369682365171e-02  9.2950007147451796e-01  9.0545785552506708e-01  -2.6320305043646575e-01  1.8496604351986663e+00  -2.0669137854755029e+00  1.4097606358295645e+00  -2.7989275969641021e+00  -5.1714102033519875e+00  -3.7446471753440425e+00  3.5026822813829126e+00  1.0000000000000000e+00  1.8744030395572229e+00  4.6100699373029332e+00  3.3818910508446551e+00  -3.4085583649835036e+00  1.1775130037520438e+00  1.2731033871124342e-01  1.1325489757530609e+00  1.0000000000000000e+00  1.0000000000000000e+00  3.2556063667837654e+00  -3.9538804674812567e+00  -6.9534635617450591e-01  -4.9457321901952378e+00  8.8780928382380198e-01  1.0809751976122117e+00  -1.7789608147269778e+00  2.4146498109424548e+00  1.2428224941419661e+00  -2.3686886619202849e+00  -3.0175732895904841e+00  2.5132515351323845e+00  -1.2974770539597142e+00  -1.3022626932536872e+00  3.3784019412038613e+00  2.8689663680122797e+00  1.3899631166088489e+00  -3.9689178816821360e+00  -9.0897582833214019e-01  -4.1786359853671735e+00  -4.2956930444166996e+00  -4.7523700204073078e+00  -8.5993147550117299e-01  1.0000000000000000e+00  -3.2772703587823027e+00  1.1724334397120508e+00  3.7719954272138634e+00  2.0961743141021025e+00  1.1899938260673202e+00  1.0714406846062239e+00  -2.1050744058993636e+00  8.6718645504231890e+00  -7.0065221310269150e+00  -7.1472063318130328e+00  4.8100251537805161e-01  1.5611388640488459e+00  9.5079933400332051e-01  -7.4282250245652470e+00  -6.4561295056475707e+00  3.1321974865939411e-01  -4.0342346065123378e+00  2.7226556239193576e+00  3.6656954319601351e+00  -2.3728906668075878e+00  3.9083047355663889e+00  1.0000000000000000e+00  -2.5523227726320332e+00  -1.3905691129357518e+00  -7.7423457725587974e-01  -4.1601672899408353e+00  2.4121660344717295e+00  -4.8812641506047738e+00  3.0578310222355043e+00  2.3478723362761102e+00  1.2323412767263722e+00  2.4181583668136200e+00  -6.3708269775336817e+00  -4.4089793931479351e+00  1.1359493741120075e+00  1.8882546893867402e-01  2.1919545906594742e-01  -9.1720982028537568e-01  -2.3753270004756977e+00  1.0000000000000000e+00  -1.4188066057459534e+00  3.6411890215643439e+00  4.2620601174941815e+00  2.1241158009249386e+00  5.5928605255232877e-01  1.6553031736050083e+00  -6.8240321446449865e+00  1.0000000000000000e+00  -2.0322704692513982e+00  4.6012177124854148e+00  4.4289371680435391e-01  2.9587946834405671e-01  1.3873026652321188e-02  -3.9429820845626157e-01  -1.4774048052074498e+00  -9.1985635673819544e-01  -3.1152140270731392e+00  3.6817381017721158e+00  -4.4195884912923464e+00  -1.6952900934498947e+00  1.0000000000000000e+00  1.0000000000000000e+00  3.5785883350759544e+00  1.0000000000000000e+00  -3.7240291561746020e+00  -1.8364653501289310e+00  6.1130357308772987e-01  6.5388007598606035e-01  -7.8263993673742954e-02  -3.5297600954230215e+00  -3.1097221959687854e-01  1.0000000000000000e+00  2.4017331059497828e+00  -2.1885546861309648e+00  -1.8292572869766297e+00  -9.8918044409868233e-01  -2.9075285986832591e+00  -1.4299430869454801e+00  3.6058903606930279e+00  -2.8434185701020827e+00  -1.1407286032542199e+00  -4.4610394970920710e+00  1.0264257085410198e+00  -5.9991276176522446e+00  2.4232894276297761e+00  -6.2821473616827550e+00  -3.4911424948075647e+00  1.0054716930299310e+00  1.3300761186697367e+00  -3.7404368007284430e+00  -3.8898259054147117e+00  -3.4633717859279680e+00  -1.2469413247383186e-01  1.0000000000000000e+00  1.0000000000000000e+00  1.0000000000000000e+00  1.0000000000000000e+00  1.0000000000000000e+00  9.9999999999999989e-01  1.0000000000000000e+00  9.9999999999999989e-01  1.0000000000000000e+00  1.0000000000000000e+00  9.9999999999999989e-01  1.0000000000000000e+00  1.0000000000000000e+00  1.0000000000000000e+00  1.0000000000000000e+00  1.0000000000000000e+00  1.0000000000000000e+00  1.0000000000000000e+00  1.0000000000000000e+00  1.0000000000000000e+00  1.0000000000000000e+00  1.0000000000000000e+00  1.0000000000000000e+00  1.0000000000000000e+00  1.0000000000000000e+00  1.0000000000000000e+00  1.0000000000000000e+00  1.0000000000000000e+00  1.0000000000000000e+00  1.0000000000000000e+00  1.0000000000000000e+00  1.0000000000000000e+00  1.0000000000000000e+00  1.0000000000000000e+00  9.9999999999999989e-01  1.0000000000000000e+00  1.0000000000000000e+00  1.0000000000000000e+00  1.0000000000000000e+00  1.0000000000000000e+00  1.0000000000000000e+00  9.9999999999999989e-01  -1.8322305165739434e+00  1.1744256471392505e+00  2.7196410700088882e+00  3.2980426576558912e+00  3.7905691037271243e+00  1.8772844224985550e+00  -1.9854297138140020e+00  -1.4235063738774067e-01  -2.1718022949657882e+00  -4.3498654059058621e+00  6.4984085239448530e-01  1.6141034336788660e+00  1.1498144006172362e+00  -3.9009907378461737e+00  -8.1868657142339574e-01  -2.8239111297515120e+00  2.5764960719962127e-01  -1.9641857446247007e-01  -6.2783857275213864e+00  2.4311242494553591e+00  2.1107900604971205e-01  8.0630026921899167e-01  -5.6018587156202422e+00  -5.1883657774802030e+00  1.7428740945838925e+00  3.8001849680893587e+00  -2.6305206599240396e+00  -1.5177527939663749e+00  -1.3398325311894168e+00  2.4118911892595789e+00  1.3694361855213826e+00  3.7688240580170764e+00  -8.5946709242000166e-02  -3.2625497663928460e+00  -3.4281560188597822e+00  -3.3191039129893261e+00  4.5229784152051309e+00  5.1102930306435945e-01  2.0040642827665649e+00  -3.0818877361496506e+00  2.1056712136949445e+00  2.9466452128660996e+00  -2.5586987921833065e-01  -1.3421478144738195e+00  -2.5961070332777600e+00  6.6279943413409415e-01  4.1434996897450488e-01  2.2690372049197349e+00  2.2521102381300144e+00  3.9951843462080663e+00  8.2512881545215155e-01  -2.2626837881501869e+00  6.6322496707532608e-01  2.7939592614250337e+00  3.0877708605108700e-01  -2.5455863165833406e+00  -2.5572249653243211e+00  -3.4574585198820840e+00  -1.0481665451754618e+00  1.1225945064205216e+00  4.4569917294614125e+00  3.7766926288604998e+00  3.7686122194659282e+00  -1.2330624061162174e+00  3.6159011521689738e-01  -5.8208558461684063e+00  -7.0985895043752869e+00  -2.0233848893070032e+00  1.9910787206420342e+00  3.7155259333955279e+00  1.6834081282093014e+00  -7.3074685261495687e-01  -4.0226237556078948e+00  -2.1322946142007981e+00  -1.8619658044489687e-01  -4.6696608604915282e+00  4.6319072780242019e+00  -3.2539296989109262e-01  -4.6801373505177241e-01  2.9552310152613299e+00  9.0248597765630256e-01  9.7244718183254997e-01  2.0524847364697894e+00  -4.4317100051200793e+00  1.8722903639133002e+00  -7.3767440566873281e+00  -3.1713519443746128e+00  -2.5864868618307115e+00  -1.2752825218135682e+00  9.6246055488680915e-01  3.4643430069143557e+00  2.6560815332558017e+00  2.9701654546015357e+00  -4.3017560573510778e+00  -2.3531810711740788e+00  1.2235414519437586e+00  2.3019753481758598e+00  1.4813916629087944e+00  2.5134800630988554e+00  3.7217208177957006e-01  9.0226116414084945e-01  2.5815486474644254e+00  1.5655748593667798e+00  2.2280181500645493e+00  -3.6472622157787732e-01  -5.9129868696062604e-01  4.2292609899634330e+00  1.0527703871665550e+00  -2.5546809766211251e+00  -3.2767398932545411e+00  1.2252599095788890e+00  4.4218822630025132e+00  1.1570280920314546e+00  3.4640766503850551e-01  2.3213968168300032e+00  1.8091910758883254e+00  -4.94