<?xml version="1.0"?>
<VTKFile type="UnstructuredGrid"  version="0.1"  >
<UnstructuredGrid>
<Piece  NumberOfPoints="31169" NumberOfCells="59966">
<Points>
<DataArray  type="Float64"  NumberOfComponents="3"  format="ascii">0.9188222745025124 -0.7253372008731735 0  0.9188030566011192 -0.7206436076787401 0  0.9187498303615874 -0.7159467303323014 0  0.9186627636082809 -0.7112469508281097 0  0.9185420315141799 -0.7065446519098387 0  0.9183878165399099 -0.7018402169150068 0  0.918200308367614 -0.6971340296184066 0  0.9179797038296954 -0.6924264740746768 0  0.9177262068324932 -0.6877179344601744 0  0.9174400282749323 -0.6830087949142871 0  0.9171213859622154 -0.6782994393803449 0  0.9167705045146304 -0.6735902514462805 0  0.9163876152715337 -0.6688816141851901 0  0.9159729561906055 -0.6641739099959512 0  0.9155267717424566 -0.6594675204440503 0  0.9150493128006814 -0.6547628261027756 0  0.9145408365274613 -0.6500602063949289 0  0.9140016062548206 -0.6453600394352099 0  0.9134318913616468 -0.6406627018734278 0  0.9128319671465994 -0.6359685687386911 0  0.9122021146970194 -0.6312780132847274 0  0.9115426207539815 -0.6265914068364854 0  0.9108537775736091 -0.6219091186381621 0  0.9101358827848027 -0.617231515702808 0  0.9093892392435152 -0.6125589626636484 0  0.9086141548837272 -0.6078918216272695 0  0.9078109425652754 -0.6032304520288009 0  0.9069799199186795 -0.5985752104892361 0  0.9061214091871447 -0.5939264506750257 0  0.9052357370658807 -0.5892845231600659 0  0.9043232345389226 -0.5846497752902179 0  0.9033842367136097 -0.5800225510504761 0  0.9024190826528969 -0.5754031909349031 0  0.901428115205674 -0.5707920318194518 0  0.9004116808352622 -0.5661894068377786 0  0.899370129446274 -0.5615956452601619 0  0.8983038142100029 -0.5570110723756192 0  0.897213091388531 -0.5524360093773274 0  0.8960983201577314 -0.547870773251434 0  0.8949598624293444 -0.5433156766693491 0  0.8937980826723079 -0.5387710278835985 0  0.8926133477335254 -0.5342371306273189 0  0.8914060266582484 -0.5297142840174602 0  0.8901764905102507 -0.5252027824617703 0  0.888925112191978 -0.5207029155696168 0  0.8876522662648435 -0.5162149680667044 0  0.8863583287698482 -0.5117392197137387 0  0.8850436770486997 -0.5072759452290798 0  0.8837086895655967 -0.5028254142154259 0  0.8823537457298497 -0.4983878910905599 0  0.8809792257195102 -0.4939636350221899 0  0.8795855103061568 -0.4895528998669014 0  0.8781729806810181 -0.4851559341132444 0  0.8767420182825701 -0.4807729808289619 0  0.8752930046257772 -0.4764042776123712 0  0.8738263211331134 -0.4720500565478926 0  0.8723423489675227 -0.4677105441657294 0  0.8708414688674453 -0.4633859614056815 0  0.8693240609840642 -0.4590765235850862 0  0.8677905047208888 -0.4547824403708582 0  0.8662411785758163 -0.4505039157556122 0  0.8646764599857879 -0.446241148037833 0  0.8630967251741631 -0.441994329806062 0  0.861502349000921 -0.437763647927061 0  0.8598937048158048 -0.4335492835379096 0  0.8582711643145071 -0.4293514120419895 0  0.8566350973979997 -0.4251702031088065 0  0.8549858720350975 -0.4210058206775876 0  0.853323854128349 -0.4168584229646035 0  0.8516494073833335 -0.4127281624741467 0  0.8499628931814421 -0.4086151860131005 0  0.848264670456221 -0.4045196347090309 0  0.8465550955733337 -0.4004416440317249 0  0.8448345222142153 -0.3963813438181032 0  0.8431033012634637 -0.3923388583004239 0  0.8413617807000301 -0.3883143061377001 0  0.8396103054922451 -0.3843078004502446 0  0.8378492174967246 -0.380319448857255 0  0.8360788553611922 -0.3763493535173529 0  0.8342995544312458 -0.3723976111719866 0  0.8325116466610932 -0.3684643131916003 0  0.8307154605282778 -0.3645495456244837 0  0.8289113209524093 -0.3606533892482006 0  0.8270995492179111 -0.3567759196235028 0  0.8252804629007853 -0.3529172071506309 0  0.8234543757994022 -0.3490773171279035 0  0.8216215978693051 -0.3452563098124954 0  0.8197824351620269 -0.3414542404833051 0  0.8179371897679063 -0.3376711595058131 0  0.8160861597628803 -0.3339071123988253 0  0.8142296391592432 -0.3301621399030066 0  0.8123679178603392 -0.3264362780511011 0  0.8105012816191672 -0.3227295582397394 0  0.8086300120008588 -0.3190420073027294 0  0.8067543863490025 -0.315373647585737 0  0.804874677755771 -0.3117244970222526 0  0.802991155035811 -0.3080945692107457 0  0.8011040827038516 -0.304483873492912 0  0.7992137209559851 -0.3008924150329132 0  0.7973203256545669 -0.2973201948975161 0  0.7954241483166863 -0.2937672101370352 0  0.7935254361061502 -0.2902334538669856 0  0.7916244318289224 -0.286718915350354 0  0.7897213739319632 -0.2832235800803975 0  0.7878164965054021 -0.27974742986388 0  0.785910029287986 -0.276290442904661 0  0.7840021976757363 -0.2728525938875468 0  0.7820932227337438 -0.269433854062323 0  0.7801833212110454 -0.2660341913278853 0  0.7782727055585027 -0.2626535703163876 0  0.7763615839496163 -0.2592919524773266 0  0.774450160304209 -0.2559492961614895 0  0.7725386343148969 -0.2526255567046869 0  0.7706272014762902 -0.2493206865111997 0  0.7687160531168323 -0.246034635136867 0  0.7668053764332236 -0.242767349371749 0  0.7648953545273376 -0.2395187733222945 0  0.7629861664455724 -0.2362888484929513 0  0.7610779872205485 -0.2330775138671549 0  0.7591709879150889 -0.2298847059876343 0  0.7572653356684025 -0.2267103590359788 0  0.7553611937444021 -0.2235544049114079 0  0.7534587215820728 -0.2204167733086884 0  0.7515580748478327 -0.2172973917951497 0  0.7496594054897971 -0.2141961858867445 0  0.7477628617938887 -0.2111130791231076 0  0.7458685884417116 -0.2080479931415674 0  0.7439767265701204 -0.2050008477500648 0  0.7420874138324206 -0.2019715609989383 0  0.7402007844611216 -0.1989600492515353 0  0.7383169693321794 -0.1959662272536104 0  0.7364360960306611 -0.1929900082014768 0  0.7345582889177632 -0.1900313038088734 0  0.732683669199117 -0.1870900243725174 0  0.7308123549943197 -0.1841660788363114 0  0.7289444614076287 -0.1812593748541765 0  0.7270801005997483 -0.1783698188514823 0  0.7252193818606593 -0.1754973160850509 0  0.7233624116834246 -0.1726417707017103 0  0.7215092938389137 -0.1698030857953749 0  0.719660129451388 -0.1669811634626323 0  0.7178150170748938 -0.1641759048568186 0  0.7159740527704048 -0.1613872102405636 0  0.7141373301836622 -0.1586149790367913 0  0.7123049406236593 -0.1558591098781583 0  0.7104769731417225 -0.1531195006549207 0  0.7086535146111349 -0.1503960485612147 0  0.7068346498072566 -0.1476886501397412 0  0.7050204614880965 -0.1449972013248454 0  0.7032110304752854 -0.1423215974839822 0  0.7014064357354129 -0.1396617334575616 0  0.6996067544616738 -0.137017503597166 0  0.6978120621557967 -0.1343888018021369 0  0.6960224327102036 -0.1317755215545258 0  0.694237938490363 -0.1291775559524054 0  0.6924586504173023 -0.1265947977415408 0  0.6906846380502404 -0.1240271393454185 0  0.6889159696693006 -0.1214744728936322 0  0.6871527123582791 -0.1189366902486272 0  0.6853949320874236 -0.1164136830308035 0  0.6836426937961995 -0.1139053426419797 0  0.6818960614760059 -0.1114115602872204 0  0.6801550982528156 -0.1089322269950304 0  0.6784198664697062 -0.1064672336359182 0  0.6766904277692538 -0.1040164709393356 0  0.6749668431757654 -0.1015798295089955 0  0.6732491731773195 -0.09915719983657537 0  0.6715374778075901 -0.09674847231381122 0  0.6698318167274295 -0.09435353724298845 0  0.6681322493061838 -0.09197228484583721 0  0.6664388347027206 -0.0896046052708373 0  0.6647516319461423 -0.08725038859894277 0  0.6630707000161622 -0.08490952484773186 0  0.661396097923126 -0.08258190397399182 0  0.6597278847876532 -0.08026741587474645 0  0.658066119919875 -0.07796595038673473 0  0.6564108628982539 -0.07567739728435061 0  0.6547621736479639 -0.07340164627605265 0  0.6531201125188029 -0.07113858699925266 0  0.6514847403626287 -0.06888810901369373 0  0.6498561186102899 -0.06665010179332731 0  0.6482343093480397 -0.06442445471669965 0  0.6466193753934069 -0.06221105705585844 0  0.6450113803705033 -0.06000979796378808 0  0.6434103887847593 -0.05782056646038813 0  0.6418164660970522 -0.0556432514170024 0  0.6402296787972197 -0.05347774153951195 0  0.638650094476931 -0.05132392535000246 0  0.6370777819019005 -0.04918169116701801 0  0.6355128110834184 -0.04705092708441282 0  0.6339552533491803 -0.04493152094881312 0  0.6324051814133932 -0.04282336033570135 0  0.6308626694461356 -0.0407263325241353 0  0.6293277931419483 -0.03864032447011451 0  0.6278006297876356 -0.03656522277860828 0  0.626281258329247 -0.03450091367425588 0  0.6247697594382207 -0.03244728297075608 0  0.6232662155766584 -0.03040421603895723 0  0.6217707110617094 -0.02837159777366349 0  0.6202833321290312 -0.02634931255917144 0  0.6188041669953028 -0.02433724423355245 0  0.6173333059197571 -0.02233527605169598 0  0.6158708412647045 -0.02034329064713024 0  0.6144168675550159 -0.01836116999263638 0  0.6129714815365286 -0.01638879535967329 0  0.611534782233343 -0.01442604727663078 0  0.610106871003975 -0.01247280548592909 0  0.6086878515963245 -0.01052894889998449 0  0.6072778302014221 -0.008594355556058392 0  0.6058769155059149 -0.006668902570013286 0  0.6044852187432457 -0.004752466088994221 0  0.6031028537434862 -0.002844921243058925 0  0.601729936981777 -0.0009461420957791012 0  0.6003665876253245 0.000943998406163219 0  0.5990129275789121 0.00282562848435948 0  0.5976690815288664 0.004698877581012675 0  0.5963351769854328 0.006563876412202695 0  0.5950113443235033 0.008420757022050791 0  0.5936977168216361 0.01026965283775368 0  0.5923944306993134 0.01211069872545674 0  0.5911016251523733 0.01394403104693332 0  0.5898194423865535 0.01576978771703868 0  0.5885480276490798 0.01758810826190071 0  0.5872875292582345 0.01939913387781279 0  0.5860380986308319 0.02120300749078971 0  0.5847998903075315 0.02299987381674666 0  0.5835730619759116 0.02478987942225937 0  0.5823577744912274 0.02657317278586163 0  0.5811541918947758 0.02834990435983456 0  0.5799624814297841 0.03012022663243963 0  0.578782813554737 0.03188429419054566 0  0.5776153619540597 0.03364226378259765 0  0.576460303546063 0
[...]
<PointData  Scalars="f_1262"> 
<DataArray  type="Float64"  Name="f_1262"  format="ascii">1.0000000000000001e-01  1.0000000000000001e-01  1.0000000000000002e-01  1.0000000000000001e-01  1.0000000000000001e-01  1.0000000000000001e-01  1.0000000000000001e-01  1.0000000000000001e-01  1.0000000000000001e-01  1.0000000000000001e-01  1.0000000000000001e-01  1.0000000000000001e-01  1.0000000000000001e-01  1.0000000000000001e-01  1.0000000000000001e-01  1.0000000000000001e-01  1.0000000000000001e-01  1.0000000000000001e-01  1.0000000000000001e-01  1.0000000000000001e-01  1.0000000000000001e-01  1.0000000000000002e-01  1.0000000000000001e-01  1.0000000000000001e-01  1.0000000000000001e-01  1.0000000000000001e-01  1.0000000000000001e-01  1.0000000000000001e-01  1.0000000000000001e-01  1.0000000000000001e-01  1.0000000000000001e-01  1.0000000000000001e-01  1.0000000000000001e-01  1.0000000000000001e-01  1.0000000000000001e-01  1.0000000000000001e-01  1.0000000000000001e-01  1.0000000000000001e-01  1.0000000000000001e-01  1.0000000000000001e-01  1.0000000000000001e-01  1.0000000000000001e-01  1.0000000000000002e-01  1.0000000000000001e-01  1.0000000000000001e-01  1.0000000000000001e-01  1.0000000000000001e-01  1.0000000000000001e-01  1.0000000000000001e-01  1.0000000000000001e-01  1.0000000000000001e-01  1.0000000000000001e-01  1.0000000000000001e-01  1.0000000000000001e-01  1.0000000000000001e-01  1.0000000000000001e-01  1.0000000000000001e-01  1.0000000000000001e-01  1.0000000000000001e-01  1.0000000000000001e-01  1.0000000000000001e-01  1.0000000000000001e-01  1.0000000000000001e-01  1.0000000000000001e-01  1.0000000000000001e-01  1.0000000000000001e-01  1.0000000000000001e-01  1.0000000000000001e-01  1.0000000000000001e-01  1.0000000000000001e-01  1.0000000000000001e-01  1.0000000000000001e-01  1.0000000000000001e-01  1.0000000000000001e-01  1.0000000000000001e-01  1.0000000000000001e-01  1.0000000000000001e-01  1.0000000000000001e-01  1.0000000000000001e-01  1.0000000000000001e-01  1.0000000000000001e-01  1.0000000000000001e-01  1.0000000000000001e-01  1.0000000000000001e-01  1.0000000000000001e-01  1.0000000000000001e-01  1.0000000000000001e-01  1.0000000000000001e-01  1.0000000000000001e-01  1.0000000000000001e-01  1.0000000000000001e-01  1.0000000000000001e-01  1.0000000000000001e-01  1.0000000000000001e-01  1.0000000000000001e-01  1.0000000000000001e-01  1.0000000000000001e-01  1.0000000000000001e-01  1.0000000000000001e-01  1.0000000000000001e-01  1.0000000000000001e-01  1.0000000000000001e-01  1.0000000000000001e-01  1.0000000000000001e-01  1.0000000000000001e-01  1.0000000000000001e-01  1.0000000000000001e-01  9.9999999999999992e-02  1.0000000000000001e-01  1.0000000000000001e-01  1.0000000000000001e-01  1.0000000000000001e-01  1.0000000000000001e-01  1.0000000000000001e-01  1.0000000000000001e-01  1.0000000000000001e-01  1.0000000000000001e-01  1.0000000000000001e-01  1.0000000000000001e-01  1.0000000000000001e-01  1.0000000000000001e-01  1.0000000000000001e-01  1.0000000000000001e-01  1.0000000000000001e-01  1.0000000000000001e-01  1.0000000000000001e-01  1.0000000000000001e-01  1.0000000000000001e-01  1.0000000000000001e-01  1.0000000000000001e-01  1.0000000000000001e-01  1.0000000000000001e-01  1.0000000000000001e-01  1.0000000000000002e-01  1.0000000000000001e-01  1.0000000000000001e-01  1.0000000000000001e-01  9.9999999999999992e-02  1.0000000000000001e-01  1.0000000000000001e-01  1.0000000000000001e-01  1.0000000000000001e-01  1.0000000000000001e-01  1.0000000000000001e-01  1.0000000000000001e-01  1.0000000000000001e-01  1.0000000000000001e-01  1.0000000000000001e-01  1.0000000000000001e-01  1.0000000000000001e-01  1.0000000000000002e-01  1.0000000000000001e-01  1.0000000000000001e-01  1.0000000000000001e-01  1.0000000000000001e-01  1.0000000000000001e-01  1.0000000000000001e-01  1.0000000000000001e-01  1.0000000000000001e-01  1.0000000000000001e-01  1.0000000000000001e-01  1.0000000000000001e-01  1.0000000000000001e-01  1.0000000000000001e-01  1.0000000000000001e-01  1.0000000000000001e-01  1.0000000000000001e-01  1.0000000000000001e-01  1.0000000000000001e-01  1.0000000000000001e-01  1.0000000000000001e-01  1.0000000000000001e-01  1.0000000000000001e-01  1.0000000000000001e-01  1.0000000000000001e-01  1.0000000000000001e-01  9.9999999999999992e-02  1.0000000000000001e-01  1.0000000000000001e-01  1.0000000000000001e-01  1.0000000000000001e-01  1.0000000000000001e-01  1.0000000000000001e-01  1.0000000000000001e-01  1.0000000000000001e-01  1.0000000000000001e-01  1.0000000000000001e-01  1.0000000000000001e-01  1.0000000000000001e-01  1.0000000000000001e-01  1.0000000000000001e-01  1.0000000000000001e-01  1.0000000000000001e-01  1.0000000000000001e-01  1.0000000000000001e-01  1.0000000000000001e-01  1.0000000000000001e-01  1.0000000000000001e-01  1.0000000000000001e-01  1.0000000000000001e-01  1.0000000000000001e-01  1.0000000000000001e-01  1.0000000000000001e-01  1.0000000000000001e-01  1.0000000000000001e-01  1.0000000000000001e-01  1.0000000000000001e-01  1.0000000000000001e-01  1.0000000000000001e-01  1.0000000000000001e-01  1.0000000000000001e-01  1.0000000000000001e-01  1.0000000000000001e-01  1.0000000000000001e-01  1.0000000000000001e-01  1.0000000000000001e-01  1.0000000000000001e-01  1.0000000000000001e-01  1.0000000000000001e-01  1.0000000000000001e-01  1.0000000000000001e-01  1.0000000000000001e-01  1.0000000000000001e-01  1.0000000000000001e-01  1.0000000000000001e-01  1.0000000000000001e-01  1.0000000000000001e-01  1.0000000000000001e-01  1.0000000000000001e-01  1.0000000000000001e-01  1.0000000000000001e-01  1.0000000000000001e-01  1.0000000000000001e-01  1.0000000000000001e-01  1.0000000000000001e-01  1.0000000000000001e-01  1.0000000000000001e-01  1.0000000000000001e-01  1.0000000000000001e-01  1.0000000000000001e-01  1.0000000000000001e-01  1.0000000000000001e-01  1.0000000000000001e-01  1.0000000000000001e-01  1.0000000000000001e-01  1.0000000000000001e-01  1.0000000000000001e-01  1.0000000000000001e-01  1.0000000000000001e-01  1.0000000000000001e-01  1.0000000000000001e-01  1.0000000000000001e-01  1.0000000000000001e-01  1.0000000000000001e-01  1.0000000000000001e-01  1.0000000000000001e-01  1.0000000000000001e-01  1.0000000000000001e-01  1.0000000000000001e-01  1.0000000000000001e-01  1.0000000000000001e-01  1.0000000000000001e-01  1.0000000000000001e-01  1.0000000000000001e-01  1.0000000000000001e-01  1.0000000000000001e-01  1.0000000000000001e-01  9.9999999999999992e-02  1.0000000000000001e-01  1.0000000000000001e-01  1.0000000000000001e-01  1.0000000000000001e-01  1.0000000000000001e-01  1.0000000000000001e-01  1.0000000000000001e-01  1.0000000000000001e-01  1.0000000000000001e-01  1.0000000000000001e-01  1.0000000000000001e-01  1.0000000000000001e-01  1.0000000000000001e-01  1.0000000000000001e-01  1.0000000000000001e-01  1.0000000000000001e-01  1.0000000000000001e-01  1.0000000000000001e-01  1.0000000000000001e-01  1.0000000000000001e-01  1.0000000000000001e-01  1.0000000000000001e-01  1.0000000000000001e-01  1.0000000000000001e-01  1.0000000000000001e-01  1.0000000000000001e-01  1.0000000000000001e-01  1.0000000000000001e-01  1.0000000000000001e-01  1.0000000000000001e-01  1.0000000000000001e-01  1.0000000000000001e-01  1.0000000000000001e-01  1.0000000000000001e-01  1.0000000000000001e-01  9.9999999999999992e-02  1.0000000000000001e-01  1.0000000000000001e-01  1.0000000000000001e-01  1.0000000000000001e-01  1.0000000000000001e-01  1.0000000000000001e-01  1.0000000000000001e-01  1.0000000000000001e-01  1.0000000000000002e-01  1.0000000000000001e-01  1.0000000000000002e-01  1.0000000000000001e-01  1.0000000000000001e-01  1.0000000000000001e-01  1.0000000000000001e-01  9.9999999999999992e-02  1.0000000000000001e-01  1.0000000000000001e-01  1.0000000000000001e-01  1.0000000000000001e-01  1.0000000000000001e-01  1.0000000000000001e-01  1.0000000000000001e-01  1.0000000000000001e-01  1.0000000000000001e-01  1.0000000000000001e-01  1.0000000000000001e-01  1.0000000000000001e-01  1.0000000000000001e-01  1.0000000000000001e-01  9.9999999999999992e-02  1.0000000000000001e-01  1.0000000000000001e-01  1.0000000000000001e-01  1.0000000000000001e-01  1.0000000000000001e-01  1.0000000000000001e-01  1.0000000000000001e-01  1.0000000000000001e-01  1.0000000000000001e-01  1.0000000000000001e-01  1.0000000000000001e-01  1.0000000000000001e-01  1.0000000000000001e-01  1.0000000000000001e-01  1.0000000000000001e-01  1.0000000000000001e-01  1.0000000000000001e-01  1.0000000000000001e-01  1.0000000000000001e-01  1.0000000000000001e-01  1.0000000000000001e-01  1.0000000000000001e-01  1.0000000000000001e-01  1.0000000000000001e-01  1.0000000000000001e-01  1.0000000000000001e-01  1.0000000000000001e-01  1.0000000000000001e-01  1.0000000000000001e-01  1.0000000000000001e-01  1.0000000000000001e-01  1.0000000000000001e-01  1.0000000000000001e-01  1.0000000000000001e-01  1.0000000000000001e-01  1.0000000000000001e-01  1.0000000000000001e-01  1.0000000000000001e-01  1.0000000000000001e-01  1.0000000000000001e-01  1.0000000000000001e-01  1.0000000000000001e-01  1.0000000000000001e-01  1.0000000000000001e-01  1.0000000000000001e-01  1.0000000000000001e-01  1.0000000000000001e-01  1.0000000000000001e-01  1.0000000000000001e-01  9.9999999999999992e-02  1.0000000000000001e-01  1.0000000000000001e-01  1.0000000000000001e-01  1.0000000000000001e-01  1.0000000000000001e-01  1.0000000000000001e-01  1.0000000000000001e-01  1.0000000000000001e-01  1.0000000000000001e-01  1.0000000000000001e-01  1.0000000000000001e-01  1.0000000000000001e-01  1.0000000000000001e-01  1.0000000000000001e-01  1.0000000000000001e-01  1.0000000000000001e-01  1.0000000000000001e-01  1.0000000000000001e-01  1.0000000000000001e-01  9.9999999999999992e-02  1.0000000000000001e-01  1.0000000000000001e-01  1.0000000000000001e-01  1.0000000000000001e-01  1.0000000000000001e-01  1.0000000000000001e-01  9.9999999999999992e-02  1.0000000000000001e-01  1.0000000000000002e-01  1.0000000000000001e-01  1.0000000000000001e-01  1.0000000000000001e-01  1.0000000000000001e-01  1.0000000000000001e-01  1.0000000000000001e-01  1.0000000000000001e-01  1.0000000000000001e-01  1.0000000000000001e-01  1.0000000000000001e-01  1.0000000000000001e-01  1.0000000000000001e-01  1.0000000000000001e-01  1.0000000000000001e-01  1.0000000000000001e-01  1.0000000000000001e-01  1.0000000000000001e-01  1.0000000000000001e-01  1.0000000000000001e-01  1.0000000000000001e-01  1.0000000000000001e-01  1.0000000000000001e-01  1.0000000000000001e-01  1.0000000000000001e-01  1.0000000000000001e-01  1.0000000000000001e-01  1.0000000000000001e-01  1.0000000000000001e-01  1.0000000000000001e-01  1.0000000000000001e-01  1.0000000000000001e-01  1.0000000000000001e-01  1.0000000000000001e-01  1.0000000000000002e-01  1.0000000000000001e-01  1.0000000000000001e-01  1.0000000000000001e-01  1.0000000000000001e-01  1.0000000000000001e-01  1.0000000000000001e-01  1.0000000000000001e-01  1.0000000000000001e-01  1.0000000000000001e-01  1.0000000000000001e-01  1.0000000000000001e-01  1.0000000000000001e-01  1.0000000000000001e-01  1.0000000000000001e-01  1.0000000000000001e-01  1.0000000000000001e-01  1.0000000000000001e-01  1.0000000000000001e-01  1.0000000000000001e-01  1.0000000000000001e-01  1.0000000000000001e-01  1.0000000000000001e-01  1.0000000000000001e-01  1.0000000000000001e-01  1.0000000000000001e-01  1.0000000000000001e-01  1.0000000000000001e-01  1.0000000000000001e-01  1.0000000000000001e-01  1.0000000000000001e-01  1.0000000000000001e-01  1.0000000000000001e-01  1.0000000000000001e-01  1.0000000000000001e-01  1.0000000000000001e-01  1.0000000000000001e-01  1.0000000000000001e-01  1.0000000000000001e-01  1.0000000000000001e-01  1.0000000000000001e-01  1.0000000000000001e-01  1.0000000000000001e-01  1.0000000000000001e-01  1.0000000000000001e-01  1.0000000000000001e-01  1.0000000000000001e-01  1.0000000000000001e-01  1.0000000000000001e-01  1.0000000000000001e-01  1.0000000000000001e-01  1.0000000000000001e-01  1.0000000000000001e-01  1.0000000000000001e-01  1.0000000000000002e-01  1.0000000000000001e-01  1.0000000000000001e-01  1.0000000000000001e-01  1.0000000000000001e-01  9.9999999999999992e-02  1.0000000000000001e-01  1.0000000000000001e-01  1.0000000000000001e-01  1.0000000000000001e-01  1.0000000000000001e-01  1.0000000000000001e-01  1.0000000000000001e-01  1.0000000000000001e-01  1.0000000000000001e-01  1.0000000000000001e-01  1.0000000000000001e-01  1.0000000000000001e-01  1.0000000000000001e-01  1.0000000000000001e-01  1.0000000000000001e-01  1.0000000000000001e-01  1.0000000000000001e-01  1.0000000000000001e-01  1.0000000000000001e-01  1.0000000000000001e-01  1.0000000000000001e-01  1.0000000000000001e-01  1.0000000000000001e-01  1.0000000000000001e-01  1.0000000000000001e-01  9.9999999999999992e-02  1.0000000000000001e-01  1.0000000000000001e-01  1.0000000000000001e-01  1.0000000000000001e-01  1.0000000000000001e-01  1.0000000000000001e-01  1.0000000000000001e-01  1.0000000000000001e-01  1.0000000000000001e-01  1.0000000000000001e-01  1.0000000000000001e-01  1.0000000000000001e-01  1.0000000000000001e-01  1.0000000000000001e-01  1.0000000000000001e-01  1.0000000000000001e-01  1.0000000000000001e-01  1.0000000000000001e-01  1.0000000000000001e-01  1.0000000000000001e-01  1.0000000000000001e-01  1.0000000000000001e-01  1.0000000000000001e-01  1.0000000000000001e-01  1.0000000000000001e-01  1.0000000000000001e-01  1.0000000000000001e-01  1.0000000000000001e-01  1.0000000000000002e-01  1.0000000000000001e-01  1.0000000000000001e-01  1.0000000000000001e-01  1.0000000000000001e-01  1.0000000000000001e-01  1.0000000000000001e-01  1.0000000000000001e-01  1.0000000000000001e-01  1.0000000000000001e-01  1.0000000000000001e-01  1.0000000000000001e-01  1.0000000000000001e-01  1.0000000000000001e-01  1.0000000000000001e-01  1.0000000000000001e-01  1.0000000000000001e-01  1.0000000000000001e-01  1.0000000000000001e-01  1.0000000000000001e-01  1.0000000000000001e-01  1.0000000000000001e-01  1.0000000000000001e-01  1.0000000000000001e-01  1.0000000000000001e-01  1.0000000000000001e-01  1.0000000000000001e-01  1.0000000000000001e-01  1.0000000000000001e-01  1.0000000000000001e-01  1.0000000000000001e-01  1.0000000000000001e-01  1.0000000000000001e-01  1.0000000000000001e-01  1.0000000000000001e-01  1.0000000000000001e-01  1.0000000000000001e-01  1.0000000000000001e-01  1.0000000000000001e-01  1.0000000000000001e-01  1.0000000000000001e-01  1.0000000000000001e-01  1.0000000000000001e-01  1.0000000000000001e-01  1.0000000000000001e-01  1.0000000000000001e-01  1.0000000000000001e-01  1.0000000000000001e-01  1.0000000000000001e-01  1.0000000000000001e-01  1.0000000000000001e-01  9.9999999999999992e-02  1.0000000000000001e-01  1.0000000000000001e-01  1.0000000000000001e-01  1.0000000000000001e-01  1.0000000000000001e-01  1.0000000000000001e-01  1.0000000000000001e-01  1.0000000000000001e-01  1.0000000000000001e-01  1.0000000000000001e-01  1.0000000000000001e-01  1.0000000000000001e-01  9.9999999999999992e-02  1.0000000000000001e-01  1.0000000000000001e-01  1.0000000000000001e-01  1.0000000000000001e-01  1.0000000000000001e-01  1.0000000000000002e-01  1.0000000000000001e-01  1.0000000000000001e-01  1.0000000000000001e-01  1.0000000000000001e-01  1.0000000000000001e-01  1.0000000000000001e-01  1.0000000000000001e-01  1.0000000000000001e-01  1.0000000000000001e-01  1.0000000000000001e-01  1.0000000000000001e-01  1.0000000000000001e-01  1.0000000000000001e-01  1.0000000000000001e-01  1.0000000000000001e-01  1.0000000000000001e-01  1.0000000000000001e-01  1.0000000000000001e-01  1.0000000000000001e-01  1.0000000000000001e-01  1.0000000000000001e-01  1.0000000000000001e-01  1.0000000000000001e-01  1.0000000000000001e-01  1.0000000000000001e-01  1.0000000000000001e-01  1.0000000000000001e-01  9.9999999999999992e-02  1.0000000000000001e-01  1.0000000000000001e-01  1.0000000000000001e-01  1.0000000000000001e-01  1.0000000000000001e-01  1.0000000000000001e-01  1.0000000000000001e-01  1.0000000000000001e-01  1.0000000000000001e-01  1.0000000000000001e-01  1.0000000000000001e-01  1.0000000000000001e-01  1.0000000000000001e-01  1.0000000000000001e-01  1.0000000000000001e-01  1.0000000000000001e-01  1.0000000000000001e-01  1.0000000000000001e-01  1.0000000000000001e-01  1.0000000000000001e-01  1.0000000000000001e-01  1.0000000000000001e-01  1.0000000000000001e-01  1.0000000000000001e-01  9.9999999999999992e-02  1.0000000000000001e-01  1.0000000000000001e-01  1.0000000000000001e-01  1.0000000000000001e-01  1.0000000000000001e-01  1.0000000000000001e-01  1.0000000000000001e-01  1.0000000000000002e-01  1.0000000000000001e-01  1.0000000000000001e-01  1.0000000000000001e-01  1.0000000000000001e-01  1.0000000000000001e-01  1.0000000000000001e-01  1.0000000000000001e-01  1.0000000000000001e-01  1.0000000000000002e-01  1.0000000000000001e-01  1.0000000000000001e-01  1.0000000000000001e-01  1.0000000000000001e-01  1.0000000000000001e-01  1.0000000000000001e-01  1.0000000000000001e-01  1.0000000000000001e-01  1.0000000000000001e-01  1.0000000000000001e-01  1.0000000000000001e-01  1.0000000000000001e-01  1.0000000000000002e-01  1.0000000000000001e-01  1.0000000000000001e-01  1.0000000000000001e-01  1.0000000000000001e-01  1.0000000000000001e-01  1.0000000000000001e-01  1.0000000000000001e-01  1.0000000000000001e-01  1.0000000000000001e-01  1.0000000000000001e-01  1.0000000000000001e-01  1.0000000000000001e-01  1.0000000000000002e-01  1.0000000000000001e-01  1.0000000000000001e-01  1.0000000000000001e-01  1.0000000000000001e-01  1.0000000000000001e-01  1.0000000000000001e-01  1.0000000000000001e-01  1.0000000000000001e-01  1.0000000000000001e-01  1.0000000000000001e-01  1.0000000000000001e-01  1.0000000000000001e-01  1.0000000000000001e-01  1.0000000000000001e-01  1.0000000000000001e-01  1.0000000000000001e-01  1.0000000000000001e-01  1.0000000000000001e-01  1.0000000000000001e-01  1.0000000000000001e-01  1.0000000000000001e-01  1.0000000000000001e-01  1.0000000000000001e-01  1.0000000000000001e-01  1.0000000000000001e-01  1.0000000000000001e-01  1.0000000000000001e-01  1.0000000000000001e-01  1.0000000000000001e-01  1.0000000000000001e-01  1.0000000000000001e-01  1.0000000000000001e-01  1.0000000000000001e-01  1.0000000000000002e-01  1.0000000000000001e-01  1.0000000000000001e-01  1.0000000000000001e-01  1.0000000000000001e-01  1.0000000000000001e-01  1.0000000000000001e-01  1.0000000000000001e-01  1.0000000000000001e-01  1.0000000000000001e-01  1.0000000000000001e-01  1.0000000000000001e-01  1.0000000000000001e-01  1.0000000000000001e-01  1.0000000000000001e-01  1.0000000000000001e-01  1.0000000000000001e-01  1.0000000000000001e-01  1.0000000000000001e-01  1.0000000000000001e-01  1.0000000000000001e-01  1.0000000000000001e-01  1.0000000000000001e-01  1.0000000000000001e-01  1.0000000000000001e-01  1.0000000000000001e-01  1.0000000000000001e-01  1.0000000000000001e-01  1.0000000000000001e-01  1.0000000000000001e-01  1.0000000000000001e-01  1.0000000000000002e-01  1.0000000000000001e-01  1.0000000000000001e-01  1.0000000000000001e-01  1.0000000000000001e-01  1.0000000000000001e-01  1.0000000000000001e-01  1.0000000000000001e-01  1.0000000000000001e-01  1.0000000000000001e-01  1.0000000000000001e-01  1.0000000000000001e-01  1.0000000000000001e-01  1.0000000000000001e-01  1.0000000000000001e-01  1.0000000000000001e-01  1.0000000000000001e-01  1.0000000000000001e-01  1.0000000000000001e-01  1.0000000000000001e-01  1.0000000000000001e-01  1.0000000000000001e-01  1.0000000000000001e-01  1.0000000000000001e-01  1.0000000000000001e-01  1.0000000000000001e-01  1.0000000000000001e-01  1.0000000000000001e-01  1.0000000000000001e-01  1.0000000000000001e-01  1.0000000000000001e-01  1.0000000000000001e-01  1.0000000000000001e-01  1.0000000000000001e-01  1.0000000000000001e-01  1.0000000000000001e-01  1.0000000000000001e-01  1.0000000000000